# vtk DataFile Version 2.0
VTK from aFemCode
ASCII
DATASET UNSTRUCTURED_GRID
POINTS 2182 float
-1 1e-07 1e-07 
-0.996839 0.0794503 1e-07 
-0.987375 0.158398 1e-07 
-0.971669 0.236345 1e-07 
-0.94982 0.312797 1e-07 
-0.921966 0.387271 1e-07 
-0.888282 0.459297 1e-07 
-0.848983 0.52842 1e-07 
-0.804316 0.594201 1e-07 
-0.754565 0.656226 1e-07 
-0.700042 0.714102 1e-07 
-0.641093 0.767463 1e-07 
-0.578092 0.815972 1e-07 
-0.511435 0.859322 1e-07 
-0.441545 0.897239 1e-07 
-0.368864 0.929484 1e-07 
-0.29385 0.955852 1e-07 
-0.216979 0.976176 1e-07 
-0.138735 0.99033 1e-07 
-0.059615 0.998222 1e-07 
0.0198823 0.999802 1e-07 
0.0992539 0.995062 1e-07 
0.177998 0.984031 1e-07 
0.255617 0.966778 1e-07 
0.331619 0.943413 1e-07 
0.405525 0.914084 1e-07 
0.476868 0.878975 1e-07 
0.545195 0.83831 1e-07 
0.610075 0.792344 1e-07 
0.671099 0.741368 1e-07 
0.727879 0.685706 1e-07 
0.780057 0.625708 1e-07 
0.827304 0.561755 1e-07 
0.86932 0.494249 1e-07 
0.905841 0.423619 1e-07 
0.936634 0.350311 1e-07 
0.961505 0.274788 1e-07 
0.980298 0.197527 1e-07 
0.992892 0.119018 1e-07 
0.99921 0.0397566 1e-07 
0.99921 -0.0397564 1e-07 
0.992892 -0.119018 1e-07 
0.980298 -0.197527 1e-07 
0.961505 -0.274788 1e-07 
0.936634 -0.350311 1e-07 
0.905841 -0.423619 1e-07 
0.86932 -0.494249 1e-07 
0.827304 -0.561754 1e-07 
0.780057 -0.625708 1e-07 
0.727879 -0.685706 1e-07 
0.671099 -0.741368 1e-07 
0.610075 -0.792343 1e-07 
0.545195 -0.838309 1e-07 
0.476868 -0.878975 1e-07 
0.405525 -0.914084 1e-07 
0.331619 -0.943413 1e-07 
0.255617 -0.966778 1e-07 
0.177998 -0.984031 1e-07 
0.0992539 -0.995062 1e-07 
0.0198823 -0.999802 1e-07 
-0.059615 -0.998221 1e-07 
-0.138735 -0.990329 1e-07 
-0.216979 -0.976176 1e-07 
-0.29385 -0.955851 1e-07 
-0.368864 -0.929483 1e-07 
-0.441545 -0.897239 1e-07 
-0.511435 -0.859322 1e-07 
-0.578092 -0.815971 1e-07 
-0.641093 -0.767463 1e-07 
-0.700042 -0.714101 1e-07 
-0.754565 -0.656226 1e-07 
-0.804316 -0.594201 1e-07 
-0.848983 -0.528419 1e-07 
-0.888282 -0.459297 1e-07 
-0.921966 -0.387271 1e-07 
-0.94982 -0.312797 1e-07 
-0.971669 -0.236344 1e-07 
-0.987375 -0.158398 1e-07 
-0.996839 -0.0794501 1e-07 
-0.929996 0.0363731 1e-07 
-0.920509 0.111917 1e-07 
-0.905138 0.187546 1e-07 
-0.883739 0.26274 1e-07 
-0.856239 0.33755 1e-07 
-0.82252 0.413754 1e-07 
-0.782448 0.499355 1e-07 
-0.730938 0.577809 1e-07 
-0.679636 0.639589 1e-07 
-0.620854 0.688606 1e-07 
-0.558585 0.735093 1e-07 
-0.492791 0.779285 1e-07 
-0.4225 0.821675 1e-07 
-0.338407 0.865944 1e-07 
-0.245003 0.891296 1e-07 
-0.164096 0.906127 1e-07 
-0.0849276 0.914584 1e-07 
-0.00575357 0.917329 1e-07 
0.0739215 0.915047 1e-07 
0.155356 0.908928 1e-07 
0.246054 0.900461 1e-07 
0.335095 0.869126 1e-07 
0.404622 0.830611 1e-07 
0.471757 0.789311 1e-07 
0.536856 0.744318 1e-07 
0.599611 0.694949 1e-07 
0.661109 0.640167 1e-07 
0.728423 0.575095 1e-07 
0.781708 0.495275 1e-07 
0.820549 0.423345 1e-07 
0.850741 0.350967 1e-07 
0.875843 0.277034 1e-07 
0.896499 0.200939 1e-07 
0.913395 0.121247 1e-07 
0.92943 0.0296087 1e-07 
0.926083 -0.066146 1e-07 
0.914322 -0.146822 1e-07 
0.894447 -0.222569 1e-07 
0.869424 -0.296595 1e-07 
0.839896 -0.369955 1e-07 
0.805746 -0.444225 1e-07 
0.764496 -0.527513 1e-07 
0.705009 -0.602538 1e-07 
0.647853 -0.660733 1e-07 
0.587069 -0.710106 1e-07 
0.522937 -0.754777 1e-07 
0.455233 -0.795862 1e-07 
0.383034 -0.834668 1e-07 
0.300292 -0.876737 1e-07 
0.207794 -0.901041 1e-07 
0.127063 -0.914417 1e-07 
0.0487285 -0.918841 1e-07 
-0.0293355 -0.917682 1e-07 
-0.107972 -0.91172 1e-07 
-0.188812 -0.901174 1e-07 
-0.280668 -0.88594 1e-07 
-0.370092 -0.850814 1e-07 
-0.442638 -0.812779 1e-07 
-0.50791 -0.768568 1e-07 
-0.569992 -0.720071 1e-07 
-0.630144 -0.667825 1e-07 
-0.689815 -0.611837 1e-07 
-0.755397 -0.548418 1e-07 
-0.805414 -0.46821 1e-07 
-0.835715 -0.394653 1e-07 
-0.862475 -0.320531 1e-07 
-0.885536 -0.245262 1e-07 
-0.904711 -0.169611 1e-07 
-0.92129 -0.0956618 1e-07 
-0.941614 -0.0314057 1e-07 
-0.842583 0.139579 1e-07 
-0.822102 0.212333 1e-07 
-0.795712 0.284932 1e-07 
-0.763487 0.359064 1e-07 
-0.72563 0.435223 1e-07 
-0.661265 0.574184 1e-07 
-0.267132 0.813435 1e-07 
-0.605052 0.612901 1e-07 
-0.543462 0.655759 1e-07 
-0.478155 0.698959 1e-07 
-0.411023 0.741664 1e-07 
-0.343746 0.783405 1e-07 
-0.188431 0.826805 1e-07 
0.276287 0.829305 1e-07 
-0.110717 0.835206 1e-07 
-0.0322331 0.838222 1e-07 
0.0466911 0.836645 1e-07 
0.12627 0.83274 1e-07 
0.205258 0.829983 1e-07 
0.334627 0.7883 1e-07 
0.700879 0.489725 1e-07 
0.39914 0.744926 1e-07 
0.464217 0.699976 1e-07 
0.527126 0.652262 1e-07 
0.58799 0.601522 1e-07 
0.647112 0.547922 1e-07 
0.742022 0.422657 1e-07 
0.860463 -0.0224218 1e-07 
0.769054 0.352371 1e-07 
0.793033 0.280493 1e-07 
0.81402 0.206863 1e-07 
0.832313 0.131524 1e-07 
0.849335 0.0548993 1e-07 
0.854457 -0.10025 1e-07 
0.67726 -0.527396 1e-07 
0.83267 -0.171831 1e-07 
0.806417 -0.242894 1e-07 
0.777193 -0.314255 1e-07 
0.745815 -0.386076 1e-07 
0.71372 -0.458116 1e-07 
0.626741 -0.586942 1e-07 
0.228493 -0.821428 1e-07 
0.567289 -0.632177 1e-07 
0.504376 -0.674001 1e-07 
0.438253 -0.713527 1e-07 
0.369254 -0.751159 1e-07 
0.299376 -0.788121 1e-07 
0.152073 -0.840073 1e-07 
-0.307467 -0.802642 1e-07 
0.0768694 -0.842442 1e-07 
0.00119461 -0.840374 1e-07 
-0.0752184 -0.835152 1e-07 
-0.152403 -0.827314 1e-07 
-0.230545 -0.817909 1e-07 
-0.379485 -0.770899 1e-07 
-0.734679 -0.473906 1e-07 
-0.440541 -0.725939 1e-07 
-0.500032 -0.676672 1e-07 
-0.559384 -0.62452 1e-07 
-0.61909 -0.570852 1e-07 
-0.679467 -0.518927 1e-07 
-0.754772 -0.40526 1e-07 
-0.688148 0.50865 1e-07 
-0.778433 -0.3309 1e-07 
-0.801625 -0.254867 1e-07 
-0.822236 -0.178209 1e-07 
-0.841844 -0.101198 1e-07 
-0.858361 0.0651135 1e-07 
-0.865887 -0.0200871 1e-07 
-0.738814 0.230475 1e-07 
-0.709195 0.301589 1e-07 
-0.671913 0.374582 1e-07 
-0.695353 -0.348287 1e-07 
-0.535691 0.576546 1e-07 
-0.468452 0.618062 1e-07 
-0.400614 0.660357 1e-07 
-0.136879 0.759403 1e-07 
0.258771 0.758623 1e-07 
-0.0604809 0.762643 1e-07 
0.0174582 0.760189 1e-07 
0.0970994 0.755632 1e-07 
0.323124 0.706816 1e-07 
0.673463 0.420473 1e-07 
0.391053 0.660051 1e-07 
0.454151 0.612315 1e-07 
0.51427 0.563816 1e-07 
0.690653 0.35579 1e-07 
0.801846 -0.0612946 1e-07 
0.712509 0.285969 1e-07 
0.733067 0.214306 1e-07 
0.751361 0.141326 1e-07 
0.77728 -0.120973 1e-07 
0.606506 -0.523663 1e-07 
-0.605069 0.534347 1e-07 
0.748636 -0.187268 1e-07 
0.717997 -0.256235 1e-07 
0.686223 -0.326327 1e-07 
0.552019 -0.55767 1e-07 
0.171787 -0.774662 1e-07 
0.490849 -0.594863 1e-07 
0.426069 -0.632091 1e-07 
0.358211 -0.667537 1e-07 
0.105647 -0.770532 1e-07 
-0.325459 -0.733743 1e-07 
0.0330418 -0.766027 1e-07 
-0.0415846 -0.760146 1e-07 
-0.116719 -0.752851 1e-07 
-0.374822 -0.689661 1e-07 
-0.676864 -0.429665 1e-07 
-0.429601 -0.639073 1e-07 
-0.487231 -0.585357 1e-07 
-0.547032 -0.529972 1e-07 
-0.782832 0.0920775 1e-07 
-0.71974 -0.2692 1e-07 
-0.740201 -0.190584 1e-07 
-0.7592 -0.11312 1e-07 
-0.778915 -0.0384355 1e-07 
-0.800013 0.0267331 1e-07 
-0.280638 0.74331 1e-07 
-0.33485 0.702096 1e-07 
0.17872 0.752089 1e-07 
0.625022 0.464144 1e-07 
0.571829 0.514745 1e-07 
0.785854 0.00041489 1e-07 
0.768538 0.0691426 1e-07 
0.628868 -0.463446 1e-07 
0.65579 -0.396095 1e-07 
0.225425 -0.737024 1e-07 
-0.211888 0.750179 1e-07 
0.289075 -0.701059 1e-07 
-0.261617 -0.738961 1e-07 
-0.764633 0.161701 1e-07 
-0.190742 -0.745358 1e-07 
-0.609623 -0.475093 1e-07 
-0.621122 0.451419 1e-07 
0.319079 0.624386 1e-07 
-0.684427 0.173164 1e-07 
-0.626508 0.311504 1e-07 
-0.355816 -0.611384 1e-07 
-0.0908138 0.691762 1e-07 
-0.393817 0.578443 1e-07 
-0.0158103 0.686538 1e-07 
0.0630364 0.680077 1e-07 
0.238249 0.670837 1e-07 
0.381431 0.574967 1e-07 
0.440743 0.526754 1e-07 
0.611029 0.374873 1e-07 
0.698891 -0.125586 1e-07 
0.654146 0.223465 1e-07 
0.672023 0.150949 1e-07 
0.734442 -0.0603716 1e-07 
0.485876 -0.515025 1e-07 
0.665214 -0.193175 1e-07 
0.630361 -0.263623 1e-07 
0.551498 -0.481785 1e-07 
0.421159 -0.55103 1e-07 
0.353386 -0.585554 1e-07 
0.147987 -0.705027 1e-07 
-0.249845 0.668966 1e-07 
-0.00651352 -0.687372 1e-07 
-0.0820865 -0.678853 1e-07 
-0.303565 -0.669068 1e-07 
-0.641062 -0.286564 1e-07 
-0.411843 -0.553975 1e-07 
-0.471112 -0.494899 1e-07 
-0.657606 0.242558 1e-07 
-0.66003 -0.207414 1e-07 
-0.67752 -0.127676 1e-07 
-0.695149 -0.0484909 1e-07 
0.633714 0.295897 1e-07 
0.0699632 -0.695515 1e-07 
-0.714515 0.110742 1e-07 
-0.605865 -0.374597 1e-07 
0.145968 0.673964 1e-07 
-0.534003 -0.435702 1e-07 
0.498796 0.479098 1e-07 
-0.464587 0.536911 1e-07 
0.688507 0.0782554 1e-07 
0.595147 -0.33508 1e-07 
-0.536769 0.498993 1e-07 
0.281843 -0.616081 1e-07 
-0.167247 0.685734 1e-07 
-0.157002 -0.6709 1e-07 
-0.584488 0.376108 1e-07 
-0.716624 0.0348932 1e-07 
-0.323566 0.621752 1e-07 
-0.393368 0.494485 1e-07 
-0.582023 -0.227102 1e-07 
-0.046609 -0.606878 1e-07 
0.022054 0.607565 1e-07 
0.421734 -0.47013 1e-07 
0.555283 0.433199 1e-07 
0.36793 0.490313 1e-07 
-0.120994 0.629178 1e-07 
0.595849 0.162646 1e-07 
0.708622 0.00731644 1e-07 
0.619555 -0.124369 1e-07 
-0.633409 0.100506 1e-07 
0.567656 -0.408136 1e-07 
0.582434 -0.194618 1e-07 
0.20204 -0.642967 1e-07 
0.355451 -0.505213 1e-07 
-0.231036 -0.666792 1e-07 
-0.333224 -0.531573 1e-07 
-0.0542428 0.615699 1e-07 
-0.391494 -0.468528 1e-07 
-0.627003 0.012288 1e-07 
-0.597511 -0.149209 1e-07 
-0.613018 -0.0693808 1e-07 
-0.466762 0.455182 1e-07 
-0.569662 -0.298687 1e-07 
0.256524 0.589361 1e-07 
0.103912 0.597715 1e-07 
-0.451558 -0.404338 1e-07 
-0.254055 0.578549 1e-07 
0.42611 0.442311 1e-07 
0.53784 0.364315 1e-07 
0.310062 0.540262 1e-07 
0.543647 -0.266588 1e-07 
0.659227 -0.0572749 1e-07 
-0.537924 0.429161 1e-07 
0.110873 -0.628656 1e-07 
0.489105 -0.433358 1e-07 
0.288253 -0.53425 1e-07 
-0.184904 0.608361 1e-07 
-0.123565 -0.596234 1e-07 
-0.278968 -0.595893 1e-07 
-0.579092 0.253983 1e-07 
-0.549888 0.31524 1e-07 
-0.607213 0.183158 1e-07 
0.608936 0.0891532 1e-07 
-0.513455 -0.347067 1e-07 
[...]
POINT_DATA 2182
SCALARS sol_f_200 double 1
LOOKUP_TABLE default
0.388562 
0.447428 
0.495702 
0.53133 
0.552781 
0.559116 
0.550026 
0.525776 
0.487426 
0.436443 
0.37491 
0.305325 
0.230526 
0.15357 
0.0776131 
0.00570408 
-0.0591679 
-0.114309 
-0.157507 
-0.186983 
-0.20153 
-0.200551 
-0.184086 
-0.152787 
-0.107984 
-0.051483 
0.0143989 
0.0869599 
0.163229 
0.240087 
0.31439 
0.383127 
0.443495 
0.492981 
0.529639 
0.551993 
0.559164 
0.550909 
0.527628 
0.490279 
0.440561 
0.380539 
0.312774 
0.240145 
0.165741 
0.0927363 
0.024266 
-0.0367621 
-0.087651 
-0.126107 
-0.150413 
-0.15938 
-0.15247 
-0.129847 
-0.0924512 
-0.04213 
0.0179239 
0.0827191 
0.144001 
0.189417 
0.205048 
0.184932 
0.136842 
0.0746555 
0.0100034 
-0.0490813 
-0.0978977 
-0.13352 
-0.154206 
-0.159118 
-0.14818 
-0.122004 
-0.0818821 
-0.0296134 
0.0324835 
0.101702 
0.17506 
0.249419 
0.321615 
0.4085 
0.461872 
0.503628 
0.53116 
0.542547 
0.536173 
0.508598 
0.45742 
0.398172 
0.329655 
0.25335 
0.172177 
0.0886749 
-0.00190479 
-0.0831539 
-0.138317 
-0.1766 
-0.198003 
-0.201668 
-0.186725 
-0.149189 
-0.0894121 
-0.0260022 
0.0465427 
0.125646 
0.207942 
0.291279 
0.379191 
0.452199 
0.499249 
0.528402 
0.541349 
0.537724 
0.516874 
0.474347 
0.407026 
0.337037 
0.262058 
0.183955 
0.105624 
0.0296879 
-0.0450285 
-0.10636 
-0.141685 
-0.158931 
-0.158638 
-0.140133 
-0.102346 
-0.0395003 
0.0407499 
0.114916 
0.178972 
0.216069 
0.203211 
0.147604 
0.0654853 
-0.0181561 
-0.0787566 
-0.123144 
-0.15106 
-0.161071 
-0.151954 
-0.119987 
-0.0658034 
-0.00668549 
0.062126 
0.137682 
0.215661 
0.290944 
0.354885 
0.448088 
0.479755 
0.495674 
0.494403 
0.4741 
0.40406 
-0.0547342 
0.3407 
0.265084 
0.182496 
0.0991466 
0.0210845 
-0.117414 
-0.122056 
-0.163739 
-0.192727 
-0.202478 
-0.192063 
-0.162555 
-0.0727188 
0.389555 
-0.00660761 
0.0704731 
0.152804 
0.236563 
0.317839 
0.443158 
0.407113 
0.474373 
0.491276 
0.492817 
0.478779 
0.450661 
0.343735 
-0.0896008 
0.26937 
0.189898 
0.109514 
0.0329893 
-0.034289 
-0.132494 
-0.00658845 
-0.158475 
-0.167177 
-0.156696 
-0.125604 
-0.0742536 
0.0728978 
0.0068165 
0.157939 
0.245529 
0.259409 
0.17782 
0.0849492 
-0.0612992 
-0.0984819 
-0.1139 
-0.150096 
-0.166761 
-0.161871 
-0.136253 
-0.0537049 
0.439445 
0.0085882 
0.0828616 
0.1635 
0.246941 
0.402364 
0.334811 
0.42393 
0.428505 
0.413353 
-0.0564317 
0.269938 
0.184849 
0.0997797 
-0.150297 
-0.125603 
-0.186911 
-0.204253 
-0.199767 
-0.0695037 
0.375471 
0.00303119 
0.0811957 
0.162033 
0.397584 
0.334798 
0.415544 
0.421013 
0.412435 
0.266504 
-0.125349 
0.353586 
0.186856 
0.104487 
0.0260476 
-0.15693 
0.0192814 
-0.17663 
-0.177895 
-0.157884 
0.0920504 
-0.0486194 
0.209444 
0.664456 
0.203676 
-0.104929 
-0.107688 
-0.151033 
-0.177098 
-0.178473 
0.371334 
0.0130982 
0.0913242 
0.174553 
0.258127 
0.33209 
-0.0358333 
0.0222491 
-0.172137 
0.314253 
0.241672 
0.365291 
0.392383 
-0.091946 
-0.0410672 
-0.0529587 
-0.0971661 
-0.115615 
0.00410165 
0.405916 
0.0820121 
-0.153739 
0.370285 
-0.0671326 
0.33191 
0.338501 
-0.149416 
-0.180658 
0.0919667 
-0.206925 
-0.211437 
-0.136692 
0.00103967 
0.0747843 
0.301427 
0.183124 
0.329604 
0.324444 
0.270537 
-0.182194 
0.0964081 
0.0120856 
-0.145673 
-0.199224 
-0.195015 
-0.0141237 
-0.0654215 
0.132887 
0.112259 
-0.0837036 
-0.0617334 
-0.190241 
-0.202643 
0.342806 
0.0064042 
0.0847984 
0.169349 
0.321631 
0.0607471 
0.32073 
-0.12908 
-0.189961 
-0.183443 
0.152077 
0.180383 
0.308114 
-0.0621201 
0.271341 
-0.168282 
-0.134741 
0.0280453 
0.308755 
0.262629 
0.0098693 
0.0789112 
-0.0815808 
-0.0398286 
-0.225317 
-0.214116 
0.228606 
-0.0174048 
-0.173916 
0.225077 
0.288826 
0.0891867 
0.217751 
-0.115277 
-0.00051541 
-0.114698 
-0.228557 
-0.0393276 
-0.202061 
-0.208709 
-0.231066 
0.140753 
-0.0169376 
0.0592956 
0.170193 
-0.127325 
-0.125971 
-0.216104 
-0.22497 
-0.0723992 
0.0528214 
0.200236 
-0.0788839 
-0.0821656 
0.184758 
0.261572 
-0.0744787 
-0.176987 
-0.222822 
-0.13182 
-0.0754992 
-0.138433 
0.247244 
0.237867 
0.242199 
0.207461 
-0.185069 
0.216782 
-0.004065 
-0.169131 
-0.0405294 
-0.156839 
-0.177147 
0.169617 
0.0609751 
-0.179211 
-0.143632 
0.126872 
-0.110056 
-0.155355 
0.0831689 
0.0800034 
-0.0114093 
-0.220659 
-0.201366 
-0.197857 
0.227682 
-0.252112 
-0.208017 
-0.121264 
-0.162223 
-0.25889 
-0.164102 
0.131881 
0.109784 
0.107944 
0.19316 
-0.243259 
-0.26909 
-0.0487011 
0.0148759 
-0.0939122 
-0.11325 
0.156929 
-0.264882 
-0.185929 
0.121707 
0.0975495 
-0.23721 
0.124854 
-0.0562897 
-0.0261188 
0.0830591 
-0.282755 
-0.252791 
-0.0972751 
0.022803 
-0.193611 
-0.227585 
-0.166078 
-0.205068 
-0.0425123 
-0.219709 
-0.0266462 
0.0293391 
-0.273106 
-0.243947 
-0.217338 
-0.193441 
-0.257466 
-0.312099 
0.000600813 
-0.127335 
0.00628138 
-0.291466 
-0.147158 
-0.112602 
-0.256831 
-0.264049 
-0.166987 
0.0452742 
-0.0572443 
-0.277692 
-0.102534 
-0.260728 
-0.248792 
-0.26815 
-0.0104595 
-0.237531 
-0.302274 
-0.30398 
-0.103034 
-0.260084 
-0.144641 
-0.042252 
-0.29711 
-0.293492 
-0.0258957 
-0.210078 
-0.177968 
-0.321124 
-0.0848794 
-0.166012 
-0.348886 
-0.120788 
-0.335262 
-0.232933 
-0.143038 
-0.311763 
-0.26617 
-0.0822772 
-0.292179 
-0.346694 
-0.211182 
-0.112139 
-0.275246 
-0.324774 
-0.113555 
-0.309621 
-0.160728 
-0.356333 
-0.294957 
-0.305727 
-0.211427 
-0.296247 
-0.364068 
-0.189956 
-0.188945 
-0.348376 
-0.228847 
-0.125265 
-0.248319 
-0.298652 
-0.350634 
-0.208318 
-0.384878 
-0.257352 
-0.215987 
-0.327415 
-0.259232 
-0.390858 
-0.395129 
-0.21967 
-0.418622 
-0.411112 
-0.315904 
-0.367118 
-0.21503 
-0.311308 
-0.329343 
-0.307052 
-0.414251 
-0.286278 
-0.334919 
-0.286085 
-0.309382 
-0.310188 
-0.427861 
-0.337707 
-0.300278 
-0.394674 
-0.344415 
-0.433096 
-0.450167 
-0.395153 
-0.360424 
-0.384491 
-0.380501 
-0.456435 
-0.387041 
-0.410035 
-0.376572 
-0.353542 
-0.360189 
-0.458236 
-0.379582 
-0.43456 
-0.366271 
-0.461574 
-0.478017 
-0.440166 
-0.439512 
-0.407033 
-0.414583 
-0.462294 
-0.420212 
-0.404509 
-0.469811 
-0.441948 
-0.469613 
-0.440414 
-0.452374 
0.419199 
0.473063 
0.515248 
0.543948 
0.55792 
0.556532 
0.539766 
0.508343 
0.463429 
0.406874 
0.340971 
0.268396 
0.192111 
0.115236 
0.0408887 
-0.0277821 
-0.0881128 
-0.137554 
-0.174089 
-0.196219 
-0.203038 
-0.194264 
-0.170252 
-0.132023 
-0.081087 
-0.019572 
0.0500189 
0.124834 
0.201809 
0.277798 
0.349704 
0.414528 
0.469754 
0.51306 
0.542721 
0.557556 
0.557 
0.541128 
0.510629 
0.466903 
0.41172 
0.347471 
0.276885 
0.202958 
0.128838 
0.0576945 
-0.00743645 
-0.0636376 
-0.108569 
-0.140148 
-0.1569 
-0.157956 
-0.143119 
-0.11293 
-0.068762 
-0.0131075 
0.0501566 
0.114495 
0.169645 
0.201759 
0.199394 
0.163634 
0.106633 
0.0420187 
-0.0205874 
-0.0750131 
-0.117528 
-0.145847 
-0.158702 
-0.155649 
-0.136968 
-0.103634 
-0.057156 
0.000349555 
0.0663772 
0.138065 
0.212335 
0.286011 
0.355951 
0.400856 
0.431278 
0.457619 
0.482533 
0.436303 
0.503294 
0.521533 
0.48417 
0.535528 
0.546199 
0.519059 
0.552566 
0.555076 
0.538711 
0.553086 
0.547111 
0.54142 
0.535132 
0.520493 
0.524905 
0.501754 
0.475611 
0.449532 
0.420322 
0.38859 
0.429074 
0.355503 
0.319482 
0.364835 
0.28251 
0.243711 
0.292041 
0.204185 
0.164313 
0.212853 
0.123332 
0.0842175 
0.130001 
0.0390034 
0.00277184 
0.0421093 
-0.0316505 
-0.0704402 
-0.0993362 
-0.126026 
-0.14843 
-0.112562 
-0.167256 
-0.182241 
-0.159455 
-0.193203 
-0.2001 
-0.189461 
-0.202808 
-0.201277 
-0.202097 
-0.195352 
-0.185388 
-0.196514 
-0.169204 
-0.150945 
-0.170524 
-0.129102 
-0.0988294 
-0.0699903 
-0.0386529 
-0.00464249 
-0.0591773 
0.0309098 
0.0685798 
0.00919243 
0.107171 
0.146829 
0.0854409 
0.186936 
0.226805 
0.166603 
0.267521 
0.305767 
0.249929 
0.3491 
0.383653 
0.336384 
0.415696 
0.450821 
0.476709 
0.499721 
0.518672 
0.477333 
0.533344 
0.544659 
0.51551 
0.55157 
0.554766 
0.536661 
0.553708 
0.548626 
0.541378 
0.539278 
0.526072 
0.529178 
0.506381 
0.485329 
0.497782 
0.460671 
0.427076 
0.39625 
0.362137 
0.327064 
0.372983 
0.290784 
0.253093 
0.300044 
0.215205 
0.17661 
0.223051 
0.13835 
0.100647 
0.144351 
0.0630897 
0.0281274 
0.0666773 
-0.00992201 
-0.0400323 
-0.00955862 
-0.0674956 
-0.0964145 
-0.116688 
-0.133672 
-0.146271 
-0.126171 
-0.154741 
-0.159149 
-0.152467 
-0.159355 
-0.155251 
-0.161039 
-0.146938 
-0.13435 
-0.151692 
-0.117132 
-0.0964994 
-0.123542 
-0.0679568 
-0.0401371 
-0.0732733 
-0.00973786 
0.029489 
0.0633853 
0.0982665 
0.130769 
0.0777831 
0.159789 
0.183968 
0.148802 
0.200559 
0.207832 
0.20258 
0.204693 
0.19143 
0.216374 
0.169251 
0.141468 
0.179175 
0.104359 
0.0707433 
0.107092 
0.0368009 
-0.00295214 
-0.0338605 
-0.0630857 
-0.0883524 
-0.0501358 
-0.110074 
-0.128223 
-0.102897 
-0.142329 
-0.152398 
-0.139299 
-0.15824 
-0.159733 
-0.158421 
-0.156777 
-0.149615 
-0.158945 
-0.136383 
-0.120664 
-0.138658 
-0.101278 
-0.0737178 
-0.0470646 
-0.0177986 
0.0142616 
-0.0377986 
0.0479778 
0.0839262 
0.0265644 
0.120739 
0.158889 
0.0991861 
0.196786 
0.235349 
0.176433 
0.271848 
0.309046 
0.253546 
0.339577 
0.37387 
0.382329 
0.323592 
0.485167 
-0.044452 
-0.121774 
0.417433 
0.442556 
-0.0782192 
-0.00107428 
0.0224616 
-0.0954974 
0.458134 
0.479129 
0.495354 
0.508965 
0.465298 
0.517537 
0.522761 
0.489317 
0.522928 
0.518972 
0.496861 
0.509704 
0.495345 
0.486204 
0.432938 
0.402852 
-0.0276485 
-0.0690145 
0.372302 
0.33712 
0.37323 
0.300142 
0.261077 
0.303474 
0.220342 
0.178972 
0.223915 
0.137449 
0.0951806 
0.140416 
0.0558847 
0.0101967 
-0.0182858 
0.0592256 
-0.0998869 
-0.128021 
-0.0878418 
-0.136296 
-0.105726 
-0.151017 
-0.170328 
-0.142637 
-0.185087 
-0.195442 
-0.180568 
-0.201101 
-0.202019 
-0.200098 
-0.198117 
-0.189191 
-0.199797 
-0.176036 
-0.155564 
-0.14379 
-0.179571 
-0.0807718 
-0.0489388 
-0.0987863 
0.387183 
0.423963 
-0.0156391 
0.0210532 
-0.0410878 
0.059538 
0.0997703 
0.030859 
0.140679 
0.182612 
0.111053 
0.224135 
0.266584 
0.194615 
0.306807 
0.351804 
0.354622 
0.277666 
0.450684 
0.474357 
0.417604 
0.444156 
0.40954 
0.490593 
0.505001 
0.460157 
0.51408 
0.520159 
0.484372 
0.521554 
0.519143 
0.493675 
0.512671 
0.501546 
0.487419 
0.48771 
0.466075 
0.430135 
0.466235 
0.378176 
0.342361 
0.376333 
-0.0669442 
-0.0979831 
0.306145 
0.267665 
0.307076 
0.228731 
0.188774 
0.229701 
0.149012 
0.109212 
0.149251 
0.0708609 
0.0326766 
0.0702564 
-0.00158767 
-0.0388197 
-0.0637622 
-0.00211508 
-0.119178 
-0.137176 
-0.113176 
-0.0233406 
0.0188686 
-0.149851 
-0.158666 
-0.147596 
-0.162957 
-0.162619 
-0.165173 
-0.157748 
-0.147772 
-0.164474 
-0.133167 
-0.112923 
-0.143756 
-0.0888174 
-0.0553398 
-0.0423396 
-0.102341 
0.056314 
0.0965578 
0.0315543 
0.0381553 
-0.00567919 
0.133718 
0.171656 
0.11372 
0.204587 
0.229126 
0.203383 
0.237299 
0.224116 
0.276514 
0.197193 
0.160073 
0.224287 
0.12102 
0.0751879 
0.0439975 
0.129079 
-0.0387307 
-0.0698969 
-0.0291537 
-0.109755 
-0.0819635 
-0.0956123 
-0.118229 
-0.0896012 
-0.136361 
-0.150124 
-0.134396 
-0.159223 
-0.163319 
-0.161106 
-0.162356 
-0.156217 
-0.167048 
-0.145303 
-0.1274 
-0.118911 
-0.151472 
-0.0592055 
-0.0295554 
-0.077593 
0.478122 
0.45165 
0.422846 
0.458423 
0.0018277 
0.0366759 
-0.0241126 
0.0736617 
0.112202 
0.044531 
0.152074 
0.191993 
0.122503 
0.233004 
0.271631 
0.205114 
0.43503 
0.426379 
0.407982 
0.374502 
0.369612 
0.347543 
0.291525 
0.314521 
0.455197 
0.462781 
0.465577 
0.464516 
0.427709 
0.4575 
0.446933 
0.422602 
-0.0539558 
-0.023523 
0.307699 
0.269334 
0.227048 
0.185413 
0.227583 
0.142625 
0.101002 
0.141925 
-0.133673 
-0.156972 
-0.12324 
-0.0998507 
-0.175501 
-0.189757 
-0.170967 
-0.19902 
-0.203176 
-0.198241 
-0.202045 
-0.195529 
-0.204849 
-0.0702253 
-0.037923 
-0.099376 
0.384626 
0.411304 
-0.000691258 
0.0376157 
-0.034853 
0.0773031 
0.118483 
0.0410971 
0.159258 
0.201308 
0.121132 
0.423631 
0.438691 
0.387548 
0.372803 
0.340818 
0.448512 
0.456453 
0.407848 
0.459813 
0.460122 
0.419671 
0.456239 
0.448883 
0.41812 
0.307594 
0.269664 
0.301117 
-0.107474 
-0.128871 
0.381097 
0.348907 
0.312597 
0.398661 
0.230479 
0.190132 
0.226793 
0.149142 
0.108683 
0.145237 
0.0691009 
0.0310665 
0.0642537 
-0.144184 
-0.157801 
-0.142665 
0.00629014 
0.0483135 
-0.167025 
-0.171861 
-0.168973 
-0.172084 
-0.166931 
-0.179867 
-0.156892 
-0.140862 
-0.170721 
0.0835218 
0.131198 
0.0530142 
-0.0200498 
-0.0546664 
0.183997 
0.254622 
0.143788 
0.341706 
0.364871 
0.350969 
0.275299 
0.195831 
0.348198 
-0.0820226 
-0.109103 
-0.0784227 
-0.102204 
-0.0812265 
-0.0841256 
-0.12353 
-0.131817 
-0.150067 
-0.130473 
-0.16358 
-0.17123 
-0.167078 
-0.173276 
-0.169274 
-0.181014 
0.389608 
0.412202 
0.0120559 
0.049098 
-0.0234728 
0.0885889 
0.129185 
0.0510068 
0.170802 
0.213129 
0.132348 
0.254501 
0.299723 
0.216371 
0.335611 
0.369186 
0.352445 
0.295629 
-0.00703436 
-0.0449398 
0.0614996 
0.0229228 
-0.00764807 
0.0601566 
-0.145577 
-0.183417 
-0.166732 
-0.18875 
0.354603 
0.345554 
0.31848 
0.241251 
0.282214 
0.27843 
0.201877 
0.389018 
0.350759 
0.410666 
0.438847 
0.424806 
0.379865 
0.40367 
-0.0898545 
-0.109968 
-0.0630154 
-0.00342906 
-0.0363327 
-0.0680836 
-0.00895974 
-0.027394 
-0.0182774 
-0.0633964 
-0.075398 
-0.107165 
-0.12023 
-0.0932286 
-0.0867863 
-0.139614 
0.00709297 
-0.0239114 
0.047113 
0.429972 
0.445528 
0.137815 
0.0864714 
0.040047 
0.135691 
-0.159076 
-0.143926 
-0.169184 
0.426292 
0.408662 
0.393692 
0.416196 
-0.0678055 
-0.12574 
0.389661 
-0.0673188 
-0.0320899 
0.371589 
0.380188 
0.385993 
0.378315 
-0.125959 
-0.149992 
-0.150959 
-0.165447 
-0.183704 
0.139627 
0.0975069 
-0.197073 
-0.20543 
-0.196396 
-0.208332 
-0.205233 
-0.212225 
-0.129981 
-0.104223 
-0.104695 
-0.15613 
0.00343569 
0.0417106 
-0.0344411 
0.0797113 
0.119583 
0.037031 
0.340938 
0.351328 
0.226821 
0.186495 
0.375418 
0.377653 
0.375527 
0.370945 
0.328226 
0.304529 
0.26986 
0.22711 
0.319265 
-0.168651 
-0.179969 
0.143298 
0.101956 
0.1394 
0.0593897 
0.0205637 
0.0531873 
-0.134649 
-0.152139 
-0.16607 
-0.119959 
-0.187085 
-0.188858 
-0.19332 
-0.185586 
-0.176316 
-0.200065 
0.00580732 
0.0393415 
-0.0494236 
-0.0813367 
0.212374 
0.302145 
0.274324 
0.185856 
0.145733 
-0.0645001 
-0.0946693 
-0.119487 
-0.0410527 
-0.0580171 
-0.0241013 
-0.170198 
-0.183132 
-0.173283 
-0.19021 
-0.189725 
-0.200251 
0.385978 
0.388043 
0.341914 
0.338534 
0.0111406 
0.0497179 
-0.0293375 
0.0897366 
0.131229 
0.044477 
0.173888 
0.216027 
0.126584 
0.362381 
0.370718 
0.326844 
0.312921 
0.0840968 
0.138041 
0.101472 
0.0205058 
-0.0342161 
-0.0222357 
0.348037 
0.365023 
-0.116862 
-0.0936599 
0.310292 
-0.195785 
-0.18035 
-0.203992 
-0.182009 
-0.167441 
-0.196858 
0.159 
0.198556 
0.113022 
0.227 
0.184348 
0.362841 
0.352878 
0.31739 
-0.0176577 
-0.0500563 
-0.0267176 
0.31466 
0.272277 
0.32731 
-0.161962 
-0.140957 
-0.184774 
-0.115536 
-0.142443 
-0.102567 
0.115341 
0.0624685 
0.070282 
-0.132867 
0.363734 
0.363531 
0.34216 
0.324814 
0.135789 
-0.0986008 
0.262553 
0.300205 
0.216227 
0.055274 
0.0175085 
0.0499363 
0.226156 
-0.160163 
0.130679 
0.0870739 
-0.0704161 
-0.0376768 
-0.143428 
0.319183 
0.292415 
0.0447612 
0.0348951 
-0.216114 
-0.218294 
-0.197199 
-0.207651 
0.237155 
0.273327 
0.1904 
-0.00661111 
0.0289636 
-0.154449 
-0.177258 
0.279279 
0.276339 
0.342644 
0.329536 
0.28064 
0.299475 
0.1376 
0.0940503 
0.32228 
0.271411 
0.276439 
-0.0786378 
-0.102256 
-0.0906209 
0.0488655 
0.00698099 
0.0433617 
-0.113496 
-0.0803447 
-0.145177 
-0.21294 
-0.212629 
-0.22422 
-0.0294104 
0.02083 
-0.0141036 
-0.0629886 
-0.00789089 
0.243172 
-0.174974 
-0.195948 
-0.19439 
-0.207851 
-0.220028 
-0.193379 
-0.210738 
-0.2164 
-0.220905 
0.157021 
0.203798 
-0.00382308 
0.034366 
-0.0507783 
0.073684 
0.115447 
0.0996527 
0.0201509 
-0.160045 
0.222544 
0.176943 
-0.12795 
-0.0947659 
-0.130902 
-0.0970098 
0.1242 
0.265678 
-0.214096 
-0.202615 
-0.224259 
-0.214489 
-0.203371 
-0.232425 
-0.0314999 
-0.0674947 
-0.166862 
0.0655446 
0.103292 
0.0168729 
-0.105996 
0.215873 
0.252003 
-0.0392078 
-0.0493454 
-0.0716994 
-0.0676113 
-0.0347453 
-0.0709237 
-0.0431195 
0.229453 
0.18514 
0.136769 
0.318233 
0.267791 
-0.0395476 
-0.011513 
0.179689 
-0.13208 
-0.160194 
-0.180844 
-0.198247 
-0.207675 
-0.196404 
-0.228456 
-0.0987766 
-0.13262 
-0.15468 
0.00825263 
-0.0205473 
-0.0547267 
-0.095325 
-0.109282 
-0.14417 
-0.174354 
0.29673 
0.294537 
0.289592 
0.274805 
0.243376 
0.216236 
0.288898 
0.294132 
0.245769 
0.231155 
0.267744 
0.259634 
0.217181 
-0.185009 
-0.155973 
-0.158461 
-0.208622 
0.261754 
0.270424 
0.209205 
0.285901 
0.0442423 
0.00442719 
0.0364252 
-0.10369 
-0.103951 
-0.147215 
-0.12683 
0.0161 
0.0382186 
-0.140407 
-0.119499 
-0.142022 
-0.128975 
0.240893 
0.217494 
0.20443 
-0.0554851 
0.116507 
0.0715115 
-0.0395959 
-0.157316 
-0.154728 
-0.168926 
-0.184963 
-0.10876 
-0.136875 
0.179034 
0.163571 
0.14121 
-0.0931244 
-0.0645549 
-0.135085 
0.171535 
0.237531 
-0.109514 
-0.13357 
-0.121802 
0.135283 
0.0872097 
0.11199 
0.149827 
-0.148003 
0.0396525 
-0.00503879 
0.0351254 
-0.197851 
-0.218602 
-0.182795 
-0.159473 
-0.190661 
-0.214572 
-0.166129 
-0.184809 
-0.173531 
0.276738 
0.280039 
-0.232337 
-0.241642 
-0.239173 
-0.0925593 
-0.172316 
-0.205104 
-0.100266 
-0.0698498 
-0.14726 
-0.115705 
-0.105557 
-0.230543 
-0.244951 
-0.238305 
-0.0348358 
0.22737 
-0.10291 
-0.105107 
-0.16125 
0.180806 
0.179127 
-0.168042 
0.2231 
0.169333 
0.121392 
0.164725 
-0.191368 
0.115018 
-0.169266 
0.155223 
0.162615 
0.109721 
0.118781 
0.242913 
0.189926 
-0.234292 
-0.229868 
-0.250688 
-0.246918 
-0.268748 
-0.20088 
0.0894577 
-0.0315727 
0.0019758 
-0.0807536 
0.13827 
0.0782259 
0.0472451 
-0.0469401 
-0.0873485 
-0.054133 
-0.178612 
-0.073441 
-0.126323 
0.200567 
0.202881 
-0.245802 
-0.245323 
-0.261033 
-0.165624 
-0.118296 
-0.131295 
-0.173429 
-0.0483825 
0.185561 
0.180939 
0.14011 
-0.0941059 
0.162315 
0.153542 
0.115405 
-0.204448 
-0.222458 
-0.231685 
-0.244121 
-0.221455 
0.173163 
0.18441 
0.14148 
0.102824 
-0.0354178 
0.00134412 
-0.0903796 
0.0264481 
-0.0136388 
0.0163647 
0.251938 
0.0384095 
0.201199 
0.145828 
0.139351 
0.0910122 
-0.245822 
-0.271052 
-0.214049 
-0.210752 
-0.0512404 
-0.0834513 
0.0393849 
0.0754893 
-0.0138732 
-0.173989 
-0.153738 
-0.190931 
-0.224796 
-0.124123 
-0.160408 
-0.132174 
-0.146308 
-0.158498 
-0.206532 
-0.195181 
-0.0130107 
0.018481 
-0.198457 
-0.191489 
0.0288265 
-0.0182609 
0.100102 
0.0465889 
-0.246405 
-0.263436 
-0.213344 
-0.20985 
-0.0216267 
-0.192324 
-0.171127 
0.0839525 
-0.218225 
-0.235582 
0.147603 
-0.167616 
-0.195825 
-0.121787 
-0.0632549 
-0.210542 
-0.213471 
-0.147852 
-0.249257 
-0.286427 
-0.290898 
-0.302537 
0.0648867 
0.0411711 
0.0627757 
-0.0209761 
-0.236103 
-0.254837 
-0.0776965 
-0.111171 
0.0590541 
0.0691457 
-0.261885 
-0.271345 
-0.279536 
-0.284462 
-0.127368 
-0.0990171 
-0.172392 
-0.0620025 
-0.10271 
-0.0708668 
-0.209036 
-0.219753 
-0.255308 
-0.227673 
-0.252978 
-0.242233 
-0.234824 
-0.266399 
-0.143328 
-0.112774 
-0.194466 
0.0858135 
0.101373 
0.0232892 
-0.199426 
0.0844372 
-0.0149729 
0.0015293 
-0.233991 
0.0755265 
-0.22426 
-0.233381 
-0.267302 
-0.0786698 
-0.0445046 
-0.136278 
-0.0732321 
0.0276575 
-0.04039 
0.0522715 
-0.251909 
-0.241823 
-0.222913 
-0.243334 
-0.225374 
-0.252735 
-0.256166 
-0.267687 
-0.26237 
-0.163468 
0.0491091 
-0.00129479 
-0.0939072 
-0.201953 
-0.232911 
-0.286191 
-0.274513 
-0.251181 
-0.25599 
-0.292 
-0.0377612 
-0.0791379 
-0.238346 
-0.22931 
-0.262137 
-0.123325 
-0.0944632 
0.0273632 
0.0207386 
-0.0172689 
-0.26985 
-0.259518 
-0.302374 
-0.260605 
-0.283847 
-0.26797 
0.0477217 
0.00275224 
-0.065322 
0.00973795 
-0.170031 
-0.20116 
-0.0338091 
-0.136145 
-0.171914 
-0.146881 
0.0494609 
-0.287634 
-0.29161 
-0.293594 
-0.0655907 
-0.0314849 