# vtk DataFile Version 2.0
VTK from Octave
ASCII
DATASET UNSTRUCTURED_GRID
POINTS 2614 float
-0.085264 0.052250 
-0.078615 0.061803 
-0.082079 0.057123 
-0.072024 0.069373 
-0.075415 0.065671 
-0.064707 0.076243 
-0.068452 0.072900 
-0.055981 0.082862 
-0.060434 0.079672 
-0.047392 0.088057 
-0.051751 0.085567 
-0.037902 0.092539 
-0.042706 0.090422 
-0.028434 0.095872 
-0.033210 0.094324 
-0.016650 0.098604 
-0.022584 0.097417 
-0.005309 0.099859 
-0.010998 0.099393 
0.006178 0.099809 
0.000435 0.099999 
0.017882 0.098388 
0.012051 0.099271 
0.030793 0.095141 
0.024392 0.096980 
0.041989 0.090758 
0.036457 0.093118 
0.050876 0.086091 
0.046491 0.088536 
0.059250 0.080557 
0.055132 0.083429 
0.067027 0.074212 
0.063218 0.077482 
0.076126 0.064845 
0.071729 0.069677 
0.082346 0.056738 
0.079340 0.060871 
0.088057 0.047392 
0.085329 0.052143 
0.092364 0.038326 
0.090324 0.042913 
0.095741 0.028873 
0.094171 0.033642 
0.098410 0.017760 
0.097234 0.023355 
0.099834 0.005767 
0.099303 0.011785 
0.099909 -0.004270 
0.099997 0.000749 
0.098945 -0.014491 
0.099558 -0.009393 
0.096993 -0.024337 
0.098093 -0.019438 
0.093590 -0.035227 
0.095447 -0.029831 
0.089587 -0.044432 
0.091704 -0.039880 
0.084681 -0.053189 
0.087244 -0.048872 
0.078923 -0.061410 
0.081905 -0.057372 
0.071688 -0.069720 
0.075420 -0.065665 
0.063684 -0.077100 
0.067786 -0.073519 
0.052723 -0.084972 
0.058336 -0.081221 
0.042645 -0.090451 
0.047763 -0.087856 
0.031495 -0.094911 
0.037137 -0.092849 
0.019532 -0.098074 
0.025562 -0.096678 
0.004394 -0.099903 
0.011998 -0.099278 
-0.005643 -0.099841  
-0.000625 -0.099998  
-0.015623 -0.098772  
-0.010647 -0.099432  
-0.029072 -0.095681  
-0.022401 -0.097459  
-0.039056 -0.092058  
-0.034112 -0.094002  
-0.048088 -0.087679  
-0.043627 -0.089981  
-0.056635 -0.082416  
-0.052428 -0.085155  
-0.064612 -0.076324  
-0.060700 -0.079470  
-0.071938 -0.069462  
-0.068361 -0.072985  
-0.080484 -0.059350  
-0.076378 -0.064547  
-0.087525 -0.048367  
-0.084184 -0.053973  
-0.092276 -0.038537  
-0.090035 -0.043517  
-0.096428 -0.026488  
-0.094544 -0.032579  
-0.099086 -0.013486  
-0.097973 -0.020031  
-0.099979 -0.002049  
-0.099697 -0.007780  
-0.099648 0.008386 
-0.099950 0.003173 
-0.098044 0.019683 
-0.099007 0.014057 
-0.094916 0.031478 
-0.096660 0.025628 
-0.090853 0.041781 
-0.093028 0.036686 
-0.088214 0.047098 
-0.078370 0.041652 
-0.086408 0.023054 
-0.091739 0.002819 
-0.086940 -0.017776  
-0.082435 -0.040115  
-0.070222 -0.057347  
-0.055560 -0.071775  
-0.039312 -0.082521  
-0.019111 -0.088026  
0.000084 -0.092040 
0.021785 -0.084858 
0.043519 -0.078759 
0.062372 -0.065977 
0.075862 -0.053331 
0.084264 -0.037281 
0.087656 -0.017547 
0.092245 0.000574 
0.087562 0.021192 
0.081348 0.038713 
0.072403 0.056289 
0.057705 0.070374 
0.043395 0.080442 
0.022761 0.085621 
-0.000125 0.089395 
-0.022040 0.087419 
-0.039073 0.082152 
-0.054003 0.072166 
-0.069140 0.060696 
-0.073472 0.051752 
-0.084618 0.033155 
-0.089058 0.012559 
-0.089286 -0.006205  
-0.083892 -0.029954  
-0.076599 -0.047990  
-0.062778 -0.065414  
-0.048222 -0.077967  
-0.029653 -0.085355  
-0.008727 -0.089975  
0.010076 -0.089214 
0.033211 -0.080137 
0.051793 -0.071424 
0.068456 -0.058981 
0.078978 -0.044805 
0.085058 -0.028045 
0.089885 -0.008150 
0.089305 0.011208 
0.086996 0.030669 
0.076236 0.047431 
0.064863 0.062818 
0.051589 0.077576 
0.033192 0.082999 
0.011294 0.088376 
-0.011158 0.088096 
-0.031047 0.087015 
-0.047661 0.078909 
-0.061814 0.065740 
-0.075991 -0.008617  
-0.081297 0.003081 
-0.071779 0.028410 
-0.072294 -0.035375  
-0.060248 -0.054289  
-0.046285 -0.067151  
-0.031010 -0.074751  
-0.009854 -0.077850  
0.000603 -0.081492 
0.011880 -0.074907 
0.038542 -0.064369 
0.054901 -0.055303 
0.067049 -0.047195 
0.072150 -0.034467 
0.077899 -0.009886 
0.081328 0.001315 
0.075900 0.013786 
0.077147 0.027419 
0.062103 0.049486 
0.052972 0.059134 
0.046853 0.069498 
0.026532 0.068343 
0.004441 0.078549 
-0.017783 0.075555 
-0.029282 0.076927 
-0.040846 0.069229 
-0.050474 0.059866 
-0.061202 0.054066 
-0.075721 0.014354 
-0.071675 -0.022114  
-0.064269 -0.044346  
-0.052960 -0.060368  
-0.040122 -0.073611  
-0.020427 -0.075794  
0.024182 -0.068545 
0.074319 -0.021697 
0.068992 0.037441 
0.014445 0.073284 
0.037195 0.072099 
-0.005912 0.076589 
-0.064506 0.041490 
-0.042660 -0.055984  
-0.055783 -0.028693  
-0.058843 0.015653 
-0.035781 -0.064679  
0.011972 -0.055827 
0.062437 -0.012043 
0.000373 -0.066709 
0.056399 -0.039331 
0.044929 0.047033 
0.067696 0.000587 
0.062671 0.024253 
0.039236 0.060004 
0.002782 0.063785 
-0.025582 0.061817 
-0.066141 0.002607 
0.052580 0.034474 
0.059799 -0.025828 
0.025830 -0.050225 
0.059012 0.011181 
-0.049934 -0.044562  
-0.059237 -0.011732  
-0.023913 -0.063121  
0.015107 0.055159 
0.028724 0.048834 
-0.011004 0.059518 
-0.036515 0.051488 
-0.050004 0.045197 
-0.012281 -0.061826  
-0.052921 0.029951 
0.041205 -0.045766 
-0.030933 -0.054284  
-0.040420 -0.014370  
-0.003116 -0.045405  
-0.017955 0.040618 
0.010380 -0.030470 
-0.049098 0.001625 
0.043492 -0.029206 
-0.019669 -0.044200  
0.034333 0.031757 
0.046344 0.000327 
0.044990 0.018474 
-0.034722 0.033006 
-0.039837 0.016337 
-0.035174 -0.029973  
0.000407 0.044989 
-0.014724 -0.018525  
0.016480 0.034900 
-0.035831 -0.044109  
0.047477 -0.015224 
0.000966 0.022917 
-0.030830 0.000099 
0.028588 -0.032833 
0.004664 -0.002557 
0.024143 0.012082 
-0.017463 0.014069 
0.027799 -0.012689 
-0.084612 0.041717 
-0.081817 0.046951 
-0.092226 0.021368 
-0.090662 0.027266 
-0.095859 0.000385 
-0.095693 0.005602 
-0.091684 -0.022132  
-0.093013 -0.015631  
-0.084980 -0.044241  
-0.087356 -0.039326  
-0.071080 -0.063405  
-0.075353 -0.058348  
-0.056098 -0.077096  
-0.060086 -0.074049  
-0.039184 -0.087289  
-0.043700 -0.085100  
-0.017367 -0.093399  
-0.024091 -0.091853  
0.002239 -0.095972 
-0.002780 -0.095940  
0.026640 -0.089885 
0.020659 -0.091466 
0.048121 -0.081866 
0.043082 -0.084605 
0.067030 -0.067848 
0.063028 -0.071538 
0.080272 -0.053260 
0.077392 -0.057371 
0.088927 -0.036254 
0.086925 -0.040857 
0.093300 -0.016019 
0.092325 -0.020942 
0.096039 0.003170 
0.096077 -0.001848 
0.091651 0.025033 
0.092986 0.019476 
0.084702 0.043052 
0.086856 0.038519 
0.074264 0.060567 
0.077374 0.056513 
0.058477 0.075466 
0.062366 0.072293 
0.042692 0.085600 
0.047135 0.083267 
0.020322 0.092005 
0.026777 0.090381 
-0.002717 0.094627 
0.003027 0.094602 
-0.025237 0.091645 
-0.019345 0.093011 
-0.043232 0.085104 
-0.038487 0.087345 
-0.059355 0.074205 
-0.054992 0.077514 
-0.073878 0.061249 
-0.070582 0.065034 
-0.079368 0.052001 
-0.076044 0.056777 
-0.071306 0.056224 
-0.075921 0.046702 
-0.089767 0.032317 
-0.087736 0.037468 
-0.094353 0.010472 
-0.093551 0.016121 
-0.094186 -0.009845  
-0.094632 -0.004127  
-0.088084 -0.034246  
-0.090160 -0.028221  
-0.078541 -0.053670  
-0.082062 -0.048179  
-0.063695 -0.070869  
-0.067358 -0.067438  
-0.048155 -0.082823  
-0.052429 -0.080192  
-0.029362 -0.090518  
-0.034354 -0.088706  
-0.007185 -0.094908  
-0.012175 -0.094374  
0.014804 -0.093644 
0.007235 -0.094559 
0.037928 -0.085294 
0.032353 -0.087524 
0.057739 -0.074262 
0.052258 -0.078198 
0.073690 -0.060195 
0.070072 -0.064350 
0.084282 -0.044618 
0.081830 -0.048997 
0.091026 -0.026191 
0.089324 -0.031636 
0.094897 -0.006210 
0.094415 -0.011320 
0.093857 0.014484 
0.094569 0.008487 
0.089680 0.034497 
0.091368 0.029771 
0.079291 0.052084 
0.082146 0.047411 
0.065945 0.068515 
0.070494 0.063832 
0.051232 0.081833 
0.055419 0.079067 
0.031992 0.089070 
0.037590 0.086878 
0.008736 0.094093 
0.014588 0.093382 
-0.013904 0.093350 
-0.008234 0.093978 
-0.034475 0.089777 
-0.029741 0.091444 
-0.051821 0.080886 
-0.047526 0.083483 
-0.066919 0.067556 
-0.063260 0.070992 
-0.090399 0.007689 
-0.081494 0.037404 
-0.087733 0.017806 
-0.090513 -0.001693  
-0.085416 -0.023865  
-0.079517 -0.044052  
-0.066500 -0.061380  
-0.051891 -0.074871  
-0.034482 -0.083938  
-0.013919 -0.089000  
0.005080 -0.090627 
0.027498 -0.082498 
0.047656 -0.075091 
0.065414 -0.062479 
0.077420 -0.049068 
0.084661 -0.032663 
0.088771 -0.012848 
0.090775 0.005891 
0.087279 0.025930 
0.078792 0.043072 
0.068633 0.059554 
0.054647 0.073975 
0.038293 0.081720 
0.017028 0.086999 
-0.005642 0.088746 
-0.026544 0.087217 
-0.043367 0.080531 
-0.057909 0.068953 
-0.085513 0.028105 
-0.088113 -0.011991  
-0.083163 -0.035035  
-0.073410 -0.052669  
-0.059169 -0.068594  
-0.043767 -0.080244  
-0.024382 -0.086690  
-0.004321 -0.091008  
0.015931 -0.087036 
0.038365 -0.079448 
0.057083 -0.068700 
0.072159 -0.056156 
0.081621 -0.041043 
0.086357 -0.022796 
0.091065 -0.003788 
0.088433 0.016200 
0.084172 0.034691 
0.074319 0.051860 
0.061284 0.066596 
0.047492 0.079009 
0.027976 0.084310 
0.005585 0.088886 
-0.016599 0.087758 
-0.035060 0.084583 
-0.050832 0.075538 
-0.065477 0.063218 
-0.081466 -0.013197  
-0.082638 -0.007411  
-0.085291 -0.001562  
-0.086518 0.002950 
-0.085177 0.007820 
-0.078644 -0.002768  
-0.078198 0.030783 
-0.075074 0.035031 
-0.077364 -0.037745  
-0.078093 -0.032665  
-0.074446 -0.041682  
-0.061513 -0.059851  
-0.065235 -0.055818  
-0.047254 -0.072559  
-0.050923 -0.069463  
-0.030332 -0.080053  
-0.035161 -0.078636  
-0.009290 -0.083913  
-0.014482 -0.082938  
0.000343 -0.086766 
-0.004062 -0.085734  
-0.004626 -0.079671  
0.005340 -0.085353 
0.016833 -0.079883 
0.010978 -0.082061 
0.041031 -0.071564 
0.035877 -0.072253 
0.045168 -0.067897 
0.058637 -0.060640 
0.053347 -0.063364 
0.071456 -0.050263 
0.067753 -0.053088 
0.073013 -0.046000 
0.078207 -0.035874 
0.075564 -0.039636 
0.078604 -0.031256 
0.083892 -0.009018 
0.082778 -0.013716 
0.086787 0.000944 
0.085607 -0.003417 
0.079614 -0.004285 
0.085316 0.006261 
0.081731 0.017489 
0.082602 0.012497 
0.082071 0.029044 
0.082354 0.024305 
0.076524 0.020602 
0.079247 0.033066 
0.067253 0.052887 
0.069170 0.048458 
0.063483 0.056152 
0.055339 0.064754 
0.058918 0.060976 
0.049221 0.073537 
0.052279 0.069936 
0.049912 0.064316 
[...]
POINT_DATA 2614
SCALARS pT_db_nLim1 double 1
LOOKUP_TABLE default
74.1528
73.9627
74.0728
73.6901
73.8405
73.2989
73.5097
72.7431
73.0363
72.1502
72.4528
71.5378
71.8344
71.1048
71.2922
71.0044
70.9849
71.4223
71.1557
72.1991
71.7809
73.1208
72.6585
74.0775
73.6202
74.7632
74.4448
75.1791
74.9893
75.4539
75.3337
75.5936
75.5402
75.5936
75.6171
75.4731
75.5453
75.2505
75.372
74.9865
75.1244
74.6857
74.8394
74.3226
74.5057
73.9311
74.1271
73.6052
73.7684
73.2642
73.4363
72.9136
73.0917
72.4755
72.7012
72.0398
72.2643
71.5434
71.8002
70.9753
71.2685
70.2634
70.6315
69.4642
69.8753
68.3528
68.9243
67.3327
67.8473
66.2848
66.7969
65.457
65.8173
65.322
65.2325
65.922
65.5602
66.9156
66.3827
68.5405
67.7162
69.772
69.1662
70.8354
70.3184
71.7746
71.3213
72.5775
72.1936
73.241
72.9265
73.9032
73.6025
74.3274
74.1427
74.5217
74.4414
74.5969
74.5775
74.5515
74.5855
74.4644
74.5104
74.3854
74.423
74.3223
74.3502
74.283
74.3004
74.2437
74.2661
74.208
73.7066
73.9525
74.262
74.5261
74.5201
73.9307
72.6214
70.6251
67.8103
64.8615
63.809
66.654
69.3453
71.0213
72.1839
73.2639
74.0592
74.98
75.5919
75.8964
75.8033
75.1969
73.7634
71.6308
70.7111
71.4595
72.5107
73.4296
73.5693
73.907
74.0924
74.367
74.6035
74.3433
73.3296
71.7059
69.4014
66.1241
63.9268
64.9339
67.831
70.1858
71.584
72.6771
73.7221
74.5812
75.2234
75.8292
75.9478
75.5204
74.6005
72.6795
70.8818
71.025
72.0836
73.0149
74.3517
74.1073
73.4272
74.6184
73.9873
72.663
70.8456
67.8446
65.5271
64.6013
65.7313
68.6841
70.5574
71.7604
73.6552
74.3216
75.0168
75.5113
76.0578
75.926
75.6069
74.375
72.034
70.4804
70.7422
71.4358
72.1316
72.8624
73.7676
74.6076
74.4374
73.4595
71.6712
69.6144
64.2983
72.7641
75.8927
73.1413
75.1002
71.0575
73.0208
73.4307
74.6254
73.3597
72.3425
67.7141
73.085
67.9622
70.0916
75.6254
74.225
75.4932
75.3683
71.9493
70.5379
73.9644
75.6557
71.6717
66.9536
74.7494
74.2599
74.3917
71.6071
73.3539
74.6147
70.8017
71.2012
72.1491
70.5201
72.6536
67.8936
72.9594
74.2156
71.1003
71.1651
70.8024
73.7979
70.2032
72.8396
74.6963
73.4987
74.6959
71.7997
72.8576
74.1836
71.9845
73.2254
73.4257
73.8291
72.0565
72.393
73.4685
69.3745
72.4048
73.2688
72.4919
71.6404
73.9839
73.9243
74.1384
74.0998
74.3636
74.3086
74.5699
74.5203
74.4326
74.518
73.601
73.9172
72.1829
72.5939
70.1415
70.7155
67.1558
68.1261
64.8951
65.3184
64.931
64.4695
67.5632
66.9392
69.8492
69.3801
71.314
70.9918
72.362
72.109
73.3069
73.091
74.0219
73.8357
74.8731
74.6739
75.459
75.3249
75.7695
75.7189
75.6517
75.7375
74.9933
75.2205
73.4339
73.9655
71.4934
71.9305
70.8911
70.8354
71.8119
71.4974
72.925
72.6354
73.7081
73.5646
73.8744
73.769
73.5032
73.6393
74.0978
74.0662
74.238
74.1872
74.4631
74.3971
74.5715
74.5893
74.1404
74.334
72.9527
73.2827
71.2404
71.7319
68.8611
69.5539
65.776
66.4231
64.3972
64.4873
66.1549
65.4738
68.7319
68.04
70.6289
70.2092
71.8534
71.5604
72.8481
72.5782
73.6998
73.4957
74.4924
74.2695
75.1309
74.973
75.6891
75.5848
75.8019
75.8194
75.3615
75.5135
74.3487
74.7291
72.4148
72.93
70.9114
71.1461
71.2774
71.0572
72.425
72.1204
73.3694
73.1653
74.1751
73.8092
74.0155
74.3086
74.5827
74.4487
73.6617
72.1912
70.0479
66.9759
64.3244
64.2386
67.22
69.7683
71.2991
72.426
73.5027
74.324
75.1147
75.7265
75.9437
75.678
74.929
73.233
71.2023
70.8244
71.7647
72.7711
73.9211
74.4506
74.5814
74.167
73.002
71.1975
68.6423
65.4326
63.6959
65.7852
68.6209
70.6244
71.8971
72.978
73.9027
74.7902
75.4205
75.8785
75.8974
75.3794
74.2071
72.1368
70.7158
71.2181
72.2983
73.2312
74.4549
74.3459
74.2475
74.1785
74.0738
74.2199
73.6542
73.5272
74.5739
74.6186
74.5138
73.681
73.9655
72.1896
72.6477
70.1126
70.7248
66.8529
67.7855
64.9945
65.7805
66.7001
64.3876
63.599
63.9264
65.986
65.1053
66.7157
68.9757
68.1352
70.7987
70.3313
71.13
72.0062
71.6477
72.2949
73.7319
73.4589
74.218
74.0211
74.0124
74.4992
75.062
74.8395
75.4031
75.2701
75.2972
75.5869
76.029
76.0055
76.0432
75.9009
75.9918
75.5873
75.7467
75.7915
75.4196
74.0857
74.535
71.8046
72.37
70.5591
70.6388
70.8753
70.6813
70.5183
71.0724
71.7568
71.4359
71.9759
72.5804
72.3132
73.1479
72.9333
72.5131
73.2353
73.7046
73.9288
73.8261
73.9429
74.6193
74.5607
74.3985
74.5575
74.217
73.0582
73.4014
71.1468
71.6901
68.6625
69.4867
67.229
65.0277
64.1155
63.6733
69.4901
71.1619
72.7247
72.263
73.0808
76.0282
75.7921
75.7282
75.9056
74.6789
76.0084
73.4901
73.7868
72.9007
74.8635
75.1781
72.5802
75.3827
70.9215
71.3332
71.0419
71.7817
74.2459
71.2864
73.5853
74.6489
73.3763
73.2772
73.2251
68.7831
64.2722
70.2747
72.1968
74.4981
73.093
73.7501
64.7434
73.2306
71.5151
74.7775
70.6701
73.0754
73.4621
74.5931
74.6522
73.5701
73.3235
72.0172
72.5238
72.9372
71.6414
65.7595
66.1593
73.4336
72.9126
69.6851
66.2514
66.7112
67.8307
71.0151
70.2918
75.8273
75.9362
74.3215
73.9419
73.6973
74.6859
75.5699
75.2978
75.7461
75.2548
75.5262
75.7072
74.9242
71.9787
72.5478
71.4491
70.8703
70.5805
70.4335
74.0309
73.8312
73.6804
74.183
75.9368
75.8593
75.6133
75.683
72.2859
71.6902
70.8911
72.403
69.3154
72.9324
65.796
65.5466
67.1591
68.1009
66.665
74.9635
74.5037
75.1614
73.9263
74.1523
73.9104
74.5326
74.3764
67.9191
70.6045
70.9459
69.9399
75.5324
71.2507
72.0135
70.6767
73.2609
73.9022
74.5422
75.0395
75.1922
74.0337
74.3778
74.5246
70.5428
70.8686
71.2864
70.5073
71.2414
70.8148
71.6075
74.1865
72.4777
72.1047
71.6729
72.6068
69.2688
70.1076
69.3424
74.6461
73.055
72.7747
72.3721
73.0079
71.1101
67.1587
68.9956
74.5682
72.6814
73.2268
72.3446
74.4922
74.3463
69.5712
69.7584
70.9727
70.7123
69.0445
69.5013
68.4629
68.2097
74.1362
73.8926
74.0565
70.038
69.0607
70.9368
70.9144
71.8635
72.3399
70.8854
73.5591
72.5933
72.0228
72.6057
75.2243
75.2559
73.9336
73.3029
70.8752
72.6632
75.1802
74.7656
75.2415
71.4205
71.3766
71.8577
73.1171
72.6885
73.3588
74.3001
74.4794
71.3542
71.9402
72.6181
71.3876
72.0626
74.2734
72.2172
73.7742
73.8503
73.4329
74.032
73.6727
74.0859
74.0658
73.4463
72.5996
71.8267
71.1675
72.8193
74.7597
72.75
72.2047
72.7864
71.7946
73.8846
73.6623
73.1913
73.5125
69.6432
74.1118
74.7186
72.9463
72.3238
72.6866
72.2326
71.8637
72.5253
73.1961
73.485
74.0071
73.9913
71.8254
72.2716
72.1123
72.8874
73.4072
74.1855
74.1633
70.903
71.7537
72.6479
72.5099
73.4475
72.5232
72.9688
73.6786
73.0692
72.6031
74.2891
74.1946
74.2455
74.1065
74.1495
74.0397
74.0687
74.0217
74.0221
74.0666
74.037
74.1683
74.1116
74.292
74.2292
74.4255
74.364
74.4898
74.4679
74.4595
74.4876
74.3198
74.4033
74.0454
74.1953
73.7369
73.8952
73.4733
73.6033
73.2415
73.3516
73.0637
73.1451
72.9301
72.9824
72.8983
72.9075
72.9136
72.9007
72.9538
72.932
72.9987
72.9766
73.0376
73.021
73.0425
73.0458
73.0085
73.0304
72.9284
72.9746
72.8025
72.8714
72.5977
72.7086
72.3641
72.4868
72.0846
72.2299
71.7684
71.9298
71.4022
71.5863
71.0534
71.2232
70.7116
70.8651
70.5646
70.6177
70.5986
70.5566
70.8348
70.6936
71.3147
71.0573
71.6645
71.4912
71.9788
71.8284
72.288
72.1557
72.3934
72.3558
72.3832
72.4013
72.2827
72.3422
72.1279
72.2094
71.972
72.0458
71.8726
71.9003
71.9934
71.9022
72.272
72.1146
72.7363
72.4922
73.2596
72.9999
73.6642
73.4711
73.9583
73.8213
74.1819
74.0832
74.3102
74.2599
74.3358
74.3327
74.3207
77.2787
76.8418
75.5445
74.0615
72.8745
72.041
71.3735
70.7148
69.9379
69.1204
68.3658
67.7987
67.5289
67.6032
67.9886
68.4854
68.9173
69.1413
69.1272
68.9687
68.919
69.1917
69.8091
70.527
71.0844
71.3298
71.2153
70.7504
70.0212
69.1435
68.2849
67.592
67.1601
67.0504
67.2903
67.8538
68.5646
69.2261
69.6933
69.9179
69.9409
69.8489
69.7823
69.7939
69.825
69.7636
69.5408
69.1982
68.8787
68.817
69.052
69.4019
69.6292
69.6032
69.3475
69.0299
69.0519
69.6644
70.8045
72.2142
73.7244
75.2445
76.6169
77.1857
76.2492
74.7944
73.4403
72.4486
71.733
71.0764
70.3479
69.5413
68.741
68.0641
67.6321
67.5347
67.7724
68.2355
68.7247
69.0647
69.1646
69.0569
68.9181
69.007
69.4728
70.178
70.8431
71.2565
71.3219
71.026
70.4208
69.595
68.7068
67.9155
67.3446
67.0664
67.1323
67.5465
68.2073
68.9186
69.495
69.84
69.9505
69.8987
69.8119
69.7847
69.8187
69.8151
69.673
69.3721
69.0125
68.8107
68.9104
69.2361
69.5487
69.6541
69.4955
69.173
68.9882
69.2936
70.2066
71.5154
72.9893
74.5142
75.9863
77.0303
78.4214
77.1757
75.5424
74.2382
73.2422
72.1842
71.1482
70.2336
69.5442
68.9423
68.5726
68.5542
69.1672
69.6872
70.0381
70.128
69.8605
69.9016
70.2034
70.8632
71.5729
71.9515
71.8446
71.1227
70.0562
69.0127
68.0402
67.3845
67.2132
67.6043
68.5318
69.4647
70.1943
70.6023
70.681
70.4714
70.4787
70.6754
70.7885
70.6724
70.2571
69.6136
69.6265
70.1153
70.5631
70.71
70.4533
69.882
70.1515
71.2345
72.6813
74.2677
75.9124
77.6487
74.5015
74.2645
74.0233
73.8017
73.6621
73.7691
73.9765
74.1861
73.9817
73.787
73.5561
73.2969
73.0577
72.7594
72.784
72.7548
72.76
72.7545
72.7833
72.7874
72.7299
72.6155
72.4787
72.2693
72.0158
71.7066
71.3176
70.8583
70.2466
70.1667
70.3364
70.7542
71.2811
71.7577
72.4243
72.4956
72.437
72.3066
72.1898
72.3624
73.2075
73.7708
74.0923
74.3419
74.5896
74.7083
74.7391
74.6727
73.6273
73.8722
74.1207
72.8467
70.5078
72.1605
72.1688
72.7011
77.83
76.2033
75.1241
74.1535
71.869
71.417
70.8792
70.5193
70.4651
71.2672
73.0568
71.568
71.7974
71.7066
71.5382
71.6215
71.1782
72.4155
72.9273
72.8923
72.233
70.1537
68.5126
68.7561
67.6175
67.2627
67.7777
69.6476
71.4843
70.7078
71.3961
71.7086
71.7212
71.9047
70.8867
72.2644
72.3935
72.1599
71.543
71.4291
71.5543
72.0979
72.5649
72.5678
72.1084
72.3476
82.6835
73.494
74.9872
76.767
78.9893
74.2445
75.1091
73.2773
73.5832
73.2313
72.9853
72.6604
69.7225
72.5229
73.6022
73.8535
72.7558
70.8237
71.5428
75.1801
80.856
73.4374
73.6903
73.2372
69.9486
72.6231
72.4703
72.4503
72.213
71.9409
71.2993
70.475
72.072
69.816
70.8834
72.4855
72.6224
73.2219
74.5842
74.9472
75.1621
75.2195
73.32
74.7176
69.7826
75.0694
72.6603
72.4923
74.2172
70.2281
71.6972
72.0669
72.3819
72.4493
73.787
73.6857
73.5038
72.5644
71.0522
71.4644
72.8777
72.4427
74.7228
76.3654
75.3433
72.585
72.2707
71.8361
71.9211
71.6414
72.8702
72.8696
72.6927
73.3227
73.4378
69.8829
69.0603
68.2827
67.4541
70.3838
72.4301
71.2909
71.8363
72.9207
72.2158
73.2387
73.2364
72.8026
73.2412
73.4782
73.8516
73.8975
73.0049
74.916
76.496
70.8436
73.493
72.7073
70.2147
75.9455
72.8509
73.4127
72.7579
73.4491
70.514
71.2208
72.9211
72.5197
75.0024
72.4519
72.5886
71.5474
75.9481
71.1195
72.7168
69.3029
75.4387
75.2417
72.7005
72.9868
72.6262
76.2295
72.9259
68.024
72.21
72.8672
81.7931
73.7638
73.5288
78.6244
79.7022
73.1999
75.5097
74.1541
69.9701
72.8771
74.175
73.0952
77.6615
72.0274
74.7325
71.9641
74.1666
82.8687
74.6572
72.2398
73.0135
70.1698
72.759
72.6689
72.9201
73.3042
73.0633
76.0857
70.9295
68.1747
69.379
71.0819
72.6522
73.3647
72.8803
74.454
74.0498
74.3969
73.4718
71.3875
77.1264
75.6492
73.4138
72.4149
75.6281
73.346
69.5898
74.8595
72.7938
73.3006
69.3348
76.9528
72.7287
78.6439
74.7532
73.198
75.7803
70.2164
69.3858
73.095
73.287
68.3409
68.6997
74.1259
72.8054
73.6099
71.7576
73.1232
77.0341
73.1539
73.0308
71.8038
73.0372
72.9362
73.4051
69.1823
79.2706
75.7202
72.4708
71.7936
77.5235
72.9004
72.2113
74.7698
76.8769
75.1743
70.7445
73.1416
77.513
77.2985
76.7894
76.0956
77.9766
75.348
74.5829
76.364
73.921
73.3187
74.8571
72.8174
72.3877
73.7184
71.9264
71.556
72.7246
71.214
70.7321
70.3295
69.8945
69.4645
70.7084
69.1
68.7046
69.8921
68.3815
68.0949
69.2278
67.8848
67.7666
68.7295
67.7395
67.8244
68.5234
68.0198
68.3175
68.5915
68.8574
69.0896
69.4568
69.2737
69.3846
69.9141
69.4438
69.417
70.1409
69.3206
69.2301
70.0309
69.1909
69.8458
69.2216
69.3583
69.5518
69.8735
70.2188
70.5902
70.5328
70.9396
71.2204
71.2528
71.4283
71.5341
71.8201
71.5349
71.4357
71.967
71.1787
70.8841
71.5561
70.5199
70.0126
69.5452
69.0764
68.6099
69.5443
68.1848
67.813
68.4981
67.5119
67.2972
67.6543
67.1714
67.1529
67.2245
67.2466
67.4408
67.3408
67.7214
68.1393
68.5249
68.9323
69.2894
69.009
69.6127
69.8565
69.8667
70.0442
70.1478
70.4428
70.1924
70.183
70.6772
70.1069
70.0493
70.5934
70.0158
70.0023
70.0094
70.0681
70.084
70.5852
70.1132
70.0715
70.7607
70.0089
69.8693
70.7709
69.6863
69.48
70.4933
69.211
69.0518
69.9192
68.9895
69.0231
69.1385
69.35
69.5295
69.8658
69.7246
69.8327
70.3716
69.8961
69.8589
70.6897
69.7477
69.5847
70.629
69.3405
69.1877
70.1653
69.1635
69.3189
69.6351
70.1634
70.7638
70.6371
71.482
72.22
71.9356
73.0071
73.7868
73.4715
74.5953
75.3732
75.0919
76.2285
76.8515
76.8377
77.3104
74.3039
74.3821
74.1298
74.2079
73.9694
74.0406
73.8563
73.9034
73.8219
73.8266
74.0244
73.9639
74.244
74.1915
74.2633
74.316
74.0274
74.1342
73.7669
73.9041
73.5155
73.6396
73.2641
73.3745
73.0513
73.1373
72.8189
72.84
72.8445
72.8409
72.8505
72.8352
72.8787
72.8598
72.8995
72.8822
72.9232
72.9185
72.9116
72.9251
72.8471
72.8825
72.7316
72.7892
72.5634
72.6579
72.3412
72.4507
72.074
72.2067
71.7594
71.9114
71.3822
71.5601
70.9815
71.1514
70.4092
70.4856
70.3803
70.3642
70.5807
70.4567
71.0311
70.7795
71.4739
71.2891
71.8691
71.7023
72.4115
72.3508
72.4425
72.4421
72.3633
72.4089
72.2206
72.2906
72.0848
72.1462
72.186
72.0846
72.9839
72.7421
73.5335
73.2842
73.8917
73.7079
74.1598
74.0309
74.3958
74.3061
74.5128
74.4716
74.5311
74.5393
74.456
74.5047
68.8523
71.7002
70.0141
70.6421
68.0327
70.4752
69.5753
69.9303
78.3702
74.5911
74.1418
74.384
73.9031
73.7216
73.6897
73.8732
73.8374
74.1537
74.076
73.9334
74.3035
74.2956
74.0902
73.9033
73.6791
73.4222
73.1706
72.8696
72.9381
72.7641
72.769
72.7583
72.7604
72.7743
72.7931
72.7679
72.6823
72.5578
72.3855
72.1523
71.8704
71.5187
71.0902
70.6238
70.795
70.183
70.2228
70.5253
71.0128
71.5256
72.2291
72.0623
72.4759
72.4786
72.3767
72.2406
72.0271
72.0381
72.4959
72.3326
73.4864
73.9324
74.2207
74.4742
74.6562
74.7299
74.7103
73.8227
73.6334
74.066
72.9421
70.6797
71.973
72.1526
72.5054
74.1789
72.7919
70.3622
72.3131
72.9374
72.23
77.6425
76.6504
75.9293
75.2545
76.9196
74.7266
74.2304
75.6214
73.777
73.2085
74.6512
71.5291
71.0481
70.8518
70.5022
71.6535
70.2261
69.9448
71.1258
69.716
69.5681
70.6676
69.4979
69.5032
70.4769
70.2293
70.4763
72.6938
72.1254
72.4826
73.6393
70.6506
70.808
71.4612
70.956
70.9777
71.7397
70.9591
70.7911
71.7991
70.7101
70.7139
71.6227
70.9049
71.2218
71.188
70.5858
71.6489
71.9976
72.0413
72.2924
72.4565
72.7243
72.4858
72.3773
72.9841
72.111
71.6601
71.7462
72.6387
70.1335
69.5268
70.7132
67.9914
68.5459
68.9222
68.3402
69.4544
67.8418
67.4714
68.1141
67.2603
67.2368
67.3119
67.3791
67.7013
68.1363
67.4241
69.0628
69.6012
69.0722
70.9519
70.989
70.0979
70.5066
70.2139
70.8347
71.0552
71.1034
71.1973
71.2421
71.592
71.2078
71.1153
71.6188
71.7313
71.1787
71.3167
71.694
70.2189
70.236
71.4811
71.5641
72.1082
71.6301
71.5724
72.3768
71.4684
71.2398
72.3211
70.9131
70.5689
71.2009
71.8574
70.5172
70.7818
71.1412
70.6909
70.8229
71.1233
71.3719
71.7732
71.5987
71.6876
72.3779
71.6718
71.544
72.6264
71.2874
70.9907
71.8223
72.3759
71.2746
71.7783
71.9246
79.5002
80.2683
72.4278
73.1239
72.8787
73.9011
74.7017
74.2052
75.5386
76.4434
75.8322
77.3145
78.4828
80.702
77.7878
73.92
74.0825
74.619
74.7444
73.46
73.4263
73.8552
73.7649
73.5789
73.5134
72.9024
73.0069
72.6887
72.7392
69.9815
70.0864
72.4554
72.318
73.4171
73.1673
74.023
73.9789
73.75
73.9651
72.5674
72.4338
69.6794
69.9899
71.0703
70.644
70.7212
70.8505
71.5685
71.5075
74.8158
74.8948
75.1478
79.8081
78.7038
79.1514
82.569
73.4472
73.5119
73.3327
73.7379
73.8187
73.4063
73.5233
73.139
73.2511
73.3634
73.1071
70.2578
70.4105
72.673
72.6955
72.5771
72.5866
72.605
72.6101
72.4213
72.4846
72.1309
72.2313
71.5437
71.6894
70.7038
70.9264
70.2012
72.0936
71.8778
70.0313
69.9369
71.0483
70.7748
72.3315
72.3116
72.527
72.5571
72.9774
72.7841
73.3991
74.3813
74.2424
74.7979
74.6988
74.9634
74.9462
74.9438
74.9671
75.2041
73.5703
73.5234
73.2791
73.27
74.2837
74.4304
74.9204
74.4797
73.4096
69.8244
72.5788
72.3208
72.6896
72.624
75.3409
75.4145
75.717
69.9623
69.9883
69.7436
69.7645
75.1908
74.8601
75.0124
74.9099
72.57
72.5353
72.6133
72.6564
72.4617
72.5641
72.4008
74.0232
73.7738
73.9206
74.4056
70.2202
69.9867
70.4389
72.0063
71.831
71.8855
72.3615
72.1495
72.2934
72.5872
72.4254
72.5525
72.5776
72.4625
72.5826
73.6219
73.7435
74.005
73.5914
73.8428
73.7666
73.7251
70.5317
73.6324
73.6191
75.2341
75.4275
72.6524
72.5912
72.6472
72.5137
72.4538
72.3104
72.014
71.5098
71.2138
71.4019
71.6006
71.3488
71.1718
71.7749
72.8244
72.9193
72.7524
72.9593
72.318
72.3631
72.4603
72.4345
74.5598
74.4515
74.8422
75.1172
71.1869
70.7661
74.6543
76.3738
75.831
75.3511
74.8423
75.8451
72.0051
72.1375
71.9381
71.6693
71.3815
71.2629
71.9922
71.2588
71.285
71.8567
71.4733
70.9122
72.3305
72.4149
72.767
72.4545
72.3836
72.9111
72.3197
72.2213
72.7898
72.9972
73.219
73.3208
73.2684
73.4453
70.0842
69.2876
70.8144
68.8202
69.4236
68.5256
67.8819
69.0353
67.4494
67.305
67.7209
70.1027
70.6554
69.7493
72.0414
72.2567
71.112
71.4673
70.8809
71.7247
71.8967
71.5962
72.5065
72.7034
72.6766
71.6241
71.8527
72.8574
72.9243
73.1162
72.9507
72.8199
73.2877
72.2097
72.5341
72.4782
72.4753
72.7795
72.8989
73.1492
73.15
73.3075
73.3371
73.713
73.2202
73.6919
73.5367
73.2645
73.1089
74.2956
74.9966
74.3374
75.8267
76.7515
75.6331
70.7735
70.4634
73.3725
73.1319
72.2416
72.6035
73.0588
72.1768
70.0881
69.8784
75.5686
75.5423
72.4378
72.1648
72.5259
73.0288
73.6388
73.4953
73.5874
72.6152
72.398
73.2708
73.4153
70.9396
71.1448
71.5799
71.6619
72.8422
72.6998
73.1602
72.5009
72.536
75.0032
74.911
72.3604
72.3995
72.4681
72.4415
72.4541
72.504
72.5285
71.7638
71.8724
71.3819
74.8421
75.5963
75.513
75.9718
71.4252
71.5528
70.8305
72.5998
72.6709
69.4682
69.4819
75.3243
75.2532
75.6529
75.191
75.1202
75.1151
75.3371
72.0761
72.0979
72.6677
71.9005
72.9024
72.9791
72.1765
72.197
72.6187
73.2079
70.4673
75.6621
75.6538
68.3608
73.0344
72.6541
73.2608
72.0867
67.4985
67.9021
67.567
71.887
72.0454
72.1252
72.0045
72.7133
72.6327
72.359
73.0563
80.5189
83.1705
73.2472
73.0491
73.8598
73.6224
73.6022
76.0927
77.8025
79.1207
79.9246
77.4522
80.6021
78.8617
73.0371
73.0857
74.8305
75.0904
74.3224
73.7374
74.7669
71.1676
70.5541
70.6599
72.7425
72.7791
72.8037
73.9296
73.7438
73.1574
73.2364
73.1257
77.8823
77.013
73.8291
71.3058
71.4902
72.3893
71.9797
70.2474
74.8613
74.6984
72.0278
72.1417
71.7712
73.6895
73.9369
73.7691
86.962
82.7819
81.1691
83.1399
74.561
74.498
74.1949
74.1605
74.4282
74.4073
72.2656
72.3236
72.1214
76.9324
72.8209
72.783
72.9582
72.9251
75.0825
78.5104
72.3422
70.6348
70.7223
72.8168
72.8814
72.2605
72.3533
73.1593
72.9709
73.1823
73.1477
73.0618
72.9388
73.2025
75.5667
76.1781
75.3786
68.506
72.3622
71.3492
70.4264
73.5132
68.1433
67.7293
69.2811
69.9059
71.2547
71.5384
72.6489
72.9072
73.3911
73.3876
72.6237
72.8556
74.6072
74.422
73.8308
74.0636
73.9119
74.1282
73.5614
73.5444
71.0591
70.7924
76.7022
76.4975
75.3468
76.0573
73.199
73.3426
73.3713
73.4867
73.4679
75.8113
73.2135
73.1464
72.2716
72.4464
75.1586
75.5912
73.4434
73.1685
74.1372
73.8347
69.8371
69.6557
73.0342
73.0693
74.9654
74.8236
72.6961
72.8228
73.5103
73.3642
73.4515
69.6802
69.8896
70.2745
77.3671
76.7388
72.7657
72.5983
79.2971
78.3
77.7064
80.1305
72.6876
72.9022
72.5898
69.6051
69.5483
74.3806
74.7922
75.1321
74.511
73.1826
73.5022
73.1241
73.3013
73.315
72.9458
76.1814
75.6403
76.3535
69.4599
76.4801
70.4125
70.8378
70.6557
69.846
69.5763
68.7771
68.7177
70.1279
69.2402
73.3483
73.361
72.3695
72.5478
72.5766
73.016
73.1289
73.3353
73.0659
69.6193
68.8613
69.0774
69.0458
68.9193
72.5697
72.6281
73.4051
73.4483
69.8159
69.6107
72.6439
72.7746
73.12
72.6445
72.7471
73.2348
73.8612
73.0617
68.4568
73.0226
68.6912
72.2962
71.888
74.1085
72.8121
67.7676
67.9886
71.2167
71.6746
72.3692
71.8938
73.2839
73.2792
73.0933
73.1232
74.2076
74.2188
72.6961
74.2978
73.0936
72.5827
72.7054
68.1621
73.6959
70.6289
76.906
77.8595
76.3052
71.281
71.2674
73.0126
73.1675
73.2714
73.3384
72.9431
72.945
72.2417
72.9691
71.728
71.3299
73.1866
73.0023
73.2172
73.5128
70.1997
72.9088
72.8499
73.1158
72.8993
72.9268
74.8891
73.3208
73.4219
73.4476
73.2972
72.8997
72.9576
73.0702
73.7498
72.5346
72.6092
71.5518
68.6799
69.5721
69.8423
68.6162
73.4723
80.5931
80.8716
72.6856
72.9738
77.1742
76.4693
79.2984
72.7314
72.8077
75.8565
75.5824